version 2
run calibration-0-20181205-10:57:36-21992
attr configname calibration
attr datetime 20181205-10:57:36
attr experiment calibration
attr inifile omnetpp.ini
attr iterationvars "$X=500, $Y=350"
attr iterationvarsf X=500,Y=350-
attr measurement "$X=500, $Y=350"
attr network Floor
attr processid 21992
attr repetition 0
attr replication #0
attr resultdir results
attr runnumber 0
attr seedset 0
itervar X 500
itervar Y 350
param Floor.sizeX 500
param Floor.sizeY 350
param Floor.radius 90
param Floor.PosX uniform(0,500)
param Floor.PosY uniform(0,350)
param Floor.P 0.6
param Floor.numberOfNodes 70
param Floor.selectionCriterionStarterNode 0
param Floor.slotTime 100ms

vector 0 Floor SlotTimeStat:vector ETV
attr "" ""
attr source SlotCountToTransmit
attr title "Slot count before receiving message, vector"
vector 1 Floor hopCountStat:vector ETV
attr "" ""
attr source Infection
attr title "Hop count, vector"
vector 2 Floor collisionOfInfectedStat:vector ETV
attr "" ""
attr source CollisionsOfInfectedNode
attr title "Number of Collisions of infected node, vector"
vector 3 Floor detectionCollisionStat:vector ETV
attr "" ""
attr source count(detectionOfCollision)
attr title "Number of Collisions for each slot, vector"
vector 4 Floor collisionOfNotInfectedStat:vector ETV
attr "" ""
attr source CollisionsOfNotInfectedNode
attr title "Number of Collisions of NOT infected node, vector"
0	7	100	1
0	8	100	1
0	9	100	1
0	10	100	1
0	11	100	1
0	12	100	1
0	30	200	2
0	31	200	2
0	32	200	2
0	66	300	3
0	67	300	3
0	68	300	3
0	69	300	3
0	70	300	3
0	74	300	3
0	119	400	4
0	120	400	4
0	121	400	4
0	122	400	4
0	123	400	4
0	125	400	4
0	126	400	4
0	202	500	5
0	207	500	5
0	208	500	5
0	209	500	5
0	210	500	5
0	211	500	5
0	215	500	5
0	216	500	5
0	247	600	6
0	248	600	6
0	307	700	7
0	308	700	7
0	309	700	7
0	312	700	7
0	314	700	7
0	315	700	7
0	318	700	7
0	319	700	7
0	320	700	7
0	321	700	7
0	322	700	7
0	323	700	7
0	325	700	7
0	425	800	8
0	426	800	8
0	430	800	8
0	431	800	8
0	437	800	8
0	472	900	9
0	473	900	9
0	475	900	9
0	476	900	9
0	477	900	9
0	478	900	9
0	479	900	9
0	480	900	9
0	481	900	9
0	527	1000	10
0	529	1000	10
0	582	1200	12
1	7	100	1
1	8	100	1
1	9	100	1
1	10	100	1
1	11	100	1
1	12	100	1
1	30	200	2
1	31	200	2
1	32	200	2
1	66	300	2
1	67	300	2
1	68	300	2
1	69	300	2
1	70	300	2
1	74	300	3
1	119	400	3
1	120	400	3
1	121	400	3
1	122	400	3
1	123	400	3
1	125	400	3
1	126	400	3
1	202	500	3
1	207	500	4
1	208	500	4
1	209	500	4
1	210	500	4
1	211	500	4
1	215	500	4
1	216	500	4
1	247	600	5
1	248	600	5
1	307	700	4
1	308	700	4
1	309	700	4
1	312	700	4
1	314	700	4
1	315	700	4
1	318	700	5
1	319	700	5
1	320	700	5
1	321	700	5
1	322	700	5
1	323	700	5
1	325	700	6
1	425	800	5
1	426	800	5
1	430	800	5
1	431	800	5
1	437	800	6
1	472	900	4
1	473	900	7
1	475	900	7
1	476	900	7
1	477	900	7
1	478	900	6
1	479	900	6
1	480	900	6
1	481	900	7
1	527	1000	5
1	529	1000	7
1	582	1200	8
2	7	100	0
2	8	100	0
2	9	100	0
2	10	100	0
2	11	100	0
2	12	100	0
2	30	200	0
2	31	200	0
2	32	200	0
2	66	300	0
2	67	300	0
2	68	300	0
2	69	300	0
2	70	300	0
2	74	300	0
2	119	400	1
2	120	400	0
2	121	400	0
2	122	400	0
2	123	400	0
2	125	400	0
2	126	400	0
2	202	500	1
2	207	500	0
2	208	500	2
2	209	500	0
2	210	500	0
2	211	500	0
2	215	500	0
2	216	500	0
2	247	600	0
2	248	600	0
2	307	700	2
2	308	700	1
2	309	700	1
2	312	700	0
2	314	700	0
2	315	700	0
2	318	700	0
2	319	700	0
2	320	700	0
2	321	700	0
2	322	700	0
2	323	700	1
2	325	700	0
2	425	800	2
2	426	800	2
2	430	800	0
2	431	800	1
2	437	800	0
2	472	900	3
2	473	900	0
2	475	900	0
2	476	900	0
2	477	900	0
2	478	900	0
2	479	900	3
2	480	900	0
2	481	900	1
2	527	1000	1
2	529	1000	2
2	582	1200	2
3	71	300	1
3	72	300	2
3	73	300	3
3	117	400	4
3	118	400	5
3	124	400	6
3	127	400	7
3	201	500	8
3	203	500	9
3	204	500	10
3	205	500	11
3	206	500	12
3	212	500	13
3	213	500	14
3	214	500	15
3	245	600	16
3	246	600	17
3	310	700	18
3	311	700	19
3	313	700	20
3	316	700	21
3	317	700	22
3	324	700	23
3	326	700	24
3	427	800	25
3	428	800	26
3	429	800	27
3	432	800	28
3	433	800	29
3	434	800	30
3	435	800	31
3	436	800	32
3	438	800	33
3	474	900	34
3	528	1000	35
3	569	1100	36
4	610	1500	3
4	610	1500	3
4	610	1500	1
4	610	1500	1
4	610	1500	1
4	610	1500	1

