version 2
run calibration-1-20181205-10:57:37-17936
attr configname calibration
attr datetime 20181205-10:57:37
attr experiment calibration
attr inifile omnetpp.ini
attr iterationvars "$X=500, $Y=350"
attr iterationvarsf X=500,Y=350-
attr measurement "$X=500, $Y=350"
attr network Floor
attr processid 17936
attr repetition 1
attr replication #1
attr resultdir results
attr runnumber 1
attr seedset 1
itervar X 500
itervar Y 350
param Floor.sizeX 500
param Floor.sizeY 350
param Floor.radius 90
param Floor.PosX uniform(0,500)
param Floor.PosY uniform(0,350)
param Floor.P 0.6
param Floor.numberOfNodes 70
param Floor.selectionCriterionStarterNode 0
param Floor.slotTime 100ms

vector 0 Floor SlotTimeStat:vector ETV
attr "" ""
attr source SlotCountToTransmit
attr title "Slot count before receiving message, vector"
vector 1 Floor hopCountStat:vector ETV
attr "" ""
attr source Infection
attr title "Hop count, vector"
vector 2 Floor collisionOfInfectedStat:vector ETV
attr "" ""
attr source CollisionsOfInfectedNode
attr title "Number of Collisions of infected node, vector"
vector 3 Floor detectionCollisionStat:vector ETV
attr "" ""
attr source count(detectionOfCollision)
attr title "Number of Collisions for each slot, vector"
vector 4 Floor collisionOfNotInfectedStat:vector ETV
attr "" ""
attr source CollisionsOfNotInfectedNode
attr title "Number of Collisions of NOT infected node, vector"
0	9	100	1
0	10	100	1
0	11	100	1
0	12	100	1
0	13	100	1
0	14	100	1
0	15	100	1
0	16	100	1
0	85	200	2
0	98	300	3
0	99	300	3
0	132	400	4
0	133	400	4
0	135	400	4
0	136	400	4
0	137	400	4
0	138	400	4
0	175	500	5
0	176	500	5
0	177	500	5
0	198	600	6
0	209	700	7
0	210	700	7
0	211	700	7
0	226	800	8
0	227	800	8
0	228	800	8
0	229	800	8
0	230	800	8
0	231	800	8
0	232	800	8
0	233	800	8
0	262	900	9
0	265	900	9
0	266	900	9
0	302	1000	10
0	304	1000	10
0	305	1000	10
0	306	1000	10
0	307	1000	10
0	308	1000	10
0	309	1000	10
0	310	1000	10
0	311	1000	10
0	312	1000	10
0	313	1000	10
0	314	1000	10
0	315	1000	10
0	388	1100	11
0	389	1100	11
0	391	1100	11
0	392	1100	11
0	393	1100	11
0	394	1100	11
0	492	1200	12
0	565	1400	14
0	568	1400	14
0	569	1400	14
1	9	100	1
1	10	100	1
1	11	100	1
1	12	100	1
1	13	100	1
1	14	100	1
1	15	100	1
1	16	100	1
1	85	200	2
1	98	300	2
1	99	300	2
1	132	400	3
1	133	400	3
1	135	400	3
1	136	400	3
1	137	400	3
1	138	400	3
1	175	500	4
1	176	500	4
1	177	500	4
1	198	600	5
1	209	700	5
1	210	700	6
1	211	700	6
1	226	800	6
1	227	800	6
1	228	800	6
1	229	800	7
1	230	800	7
1	231	800	7
1	232	800	7
1	233	800	7
1	262	900	7
1	265	900	8
1	266	900	8
1	302	1000	7
1	304	1000	9
1	305	1000	9
1	306	1000	9
1	307	1000	9
1	308	1000	9
1	309	1000	9
1	310	1000	9
1	311	1000	9
1	312	1000	9
1	313	1000	9
1	314	1000	9
1	315	1000	9
1	388	1100	8
1	389	1100	8
1	391	1100	10
1	392	1100	10
1	393	1100	10
1	394	1100	10
1	492	1200	11
1	565	1400	10
1	568	1400	9
1	569	1400	9
2	9	100	0
2	10	100	0
2	11	100	0
2	12	100	0
2	13	100	0
2	14	100	0
2	15	100	0
2	16	100	0
2	85	200	0
2	98	300	1
2	99	300	1
2	132	400	0
2	133	400	0
2	135	400	1
2	136	400	1
2	137	400	0
2	138	400	0
2	175	500	0
2	176	500	0
2	177	500	0
2	198	600	0
2	209	700	1
2	210	700	0
2	211	700	0
2	226	800	0
2	227	800	0
2	228	800	2
2	229	800	0
2	230	800	0
2	231	800	0
2	232	800	0
2	233	800	0
2	262	900	0
2	265	900	0
2	266	900	0
2	302	1000	3
2	304	1000	0
2	305	1000	0
2	306	1000	0
2	307	1000	0
2	308	1000	0
2	309	1000	0
2	310	1000	0
2	311	1000	0
2	312	1000	0
2	313	1000	0
2	314	1000	0
2	315	1000	0
2	388	1100	0
2	389	1100	1
2	391	1100	0
2	392	1100	0
2	393	1100	0
2	394	1100	0
2	492	1200	1
2	565	1400	1
2	568	1400	2
2	569	1400	2
3	80	200	1
3	81	200	2
3	82	200	3
3	83	200	4
3	84	200	5
3	131	400	6
3	134	400	7
3	170	500	8
3	171	500	9
3	172	500	10
3	173	500	11
3	174	500	12
3	196	600	13
3	197	600	14
3	199	600	15
3	263	900	16
3	264	900	17
3	303	1000	18
3	387	1100	19
3	390	1100	20
3	485	1200	21
3	486	1200	22
3	487	1200	23
3	488	1200	24
3	489	1200	25
3	490	1200	26
3	491	1200	27
3	526	1300	28
3	527	1300	29
3	528	1300	30
3	529	1300	31
3	530	1300	32
3	566	1400	33
3	567	1400	34
3	603	1500	35
3	604	1500	36
3	605	1500	37
3	606	1500	38
3	607	1500	39
4	607	1500	1
4	607	1500	2
4	607	1500	2
4	607	1500	1
4	607	1500	5
4	607	1500	2
4	607	1500	5
4	607	1500	2
4	607	1500	2

