version 2
run calibration-2-20181205-10:57:38-1800
attr configname calibration
attr datetime 20181205-10:57:38
attr experiment calibration
attr inifile omnetpp.ini
attr iterationvars "$X=500, $Y=350"
attr iterationvarsf X=500,Y=350-
attr measurement "$X=500, $Y=350"
attr network Floor
attr processid 1800
attr repetition 2
attr replication #2
attr resultdir results
attr runnumber 2
attr seedset 2
itervar X 500
itervar Y 350
param Floor.sizeX 500
param Floor.sizeY 350
param Floor.radius 90
param Floor.PosX uniform(0,500)
param Floor.PosY uniform(0,350)
param Floor.P 0.6
param Floor.numberOfNodes 70
param Floor.selectionCriterionStarterNode 0
param Floor.slotTime 100ms

vector 0 Floor SlotTimeStat:vector ETV
attr "" ""
attr source SlotCountToTransmit
attr title "Slot count before receiving message, vector"
vector 1 Floor hopCountStat:vector ETV
attr "" ""
attr source Infection
attr title "Hop count, vector"
vector 2 Floor collisionOfInfectedStat:vector ETV
attr "" ""
attr source CollisionsOfInfectedNode
attr title "Number of Collisions of infected node, vector"
vector 3 Floor detectionCollisionStat:vector ETV
attr "" ""
attr source count(detectionOfCollision)
attr title "Number of Collisions for each slot, vector"
vector 4 Floor collisionOfNotInfectedStat:vector ETV
attr "" ""
attr source CollisionsOfNotInfectedNode
attr title "Number of Collisions of NOT infected node, vector"
0	8	100	1
0	9	100	1
0	10	100	1
0	11	100	1
0	12	100	1
0	13	100	1
0	14	100	1
0	43	200	2
0	44	200	2
0	45	200	2
0	46	200	2
0	47	200	2
0	110	300	3
0	144	400	4
0	145	400	4
0	146	400	4
0	147	400	4
0	148	400	4
0	149	400	4
0	150	400	4
0	151	400	4
0	152	400	4
0	153	400	4
0	154	400	4
0	155	400	4
0	239	500	5
0	240	500	5
0	241	500	5
0	242	500	5
0	243	500	5
0	244	500	5
0	245	500	5
0	304	600	6
0	305	600	6
0	306	600	6
0	312	600	6
0	314	600	6
0	315	600	6
0	422	700	7
0	425	700	7
0	426	700	7
0	428	700	7
0	432	700	7
0	433	700	7
0	482	800	8
0	483	800	8
0	484	800	8
0	485	800	8
0	486	800	8
0	487	800	8
0	488	800	8
0	489	800	8
0	490	800	8
0	491	800	8
0	563	900	9
0	564	900	9
0	565	900	9
0	653	1100	11
0	654	1100	11
0	655	1100	11
0	656	1100	11
0	693	1200	12
0	694	1200	12
0	695	1200	12
1	8	100	1
1	9	100	1
1	10	100	1
1	11	100	1
1	12	100	1
1	13	100	1
1	14	100	1
1	43	200	2
1	44	200	2
1	45	200	2
1	46	200	2
1	47	200	2
1	110	300	3
1	144	400	2
1	145	400	4
1	146	400	4
1	147	400	4
1	148	400	4
1	149	400	4
1	150	400	4
1	151	400	4
1	152	400	4
1	153	400	4
1	154	400	4
1	155	400	4
1	239	500	5
1	240	500	5
1	241	500	5
1	242	500	5
1	243	500	5
1	244	500	5
1	245	500	5
1	304	600	5
1	305	600	5
1	306	600	5
1	312	600	6
1	314	600	6
1	315	600	6
1	422	700	5
1	425	700	6
1	426	700	6
1	428	700	6
1	432	700	7
1	433	700	7
1	482	800	6
1	483	800	6
1	484	800	6
1	485	800	7
1	486	800	7
1	487	800	8
1	488	800	8
1	489	800	8
1	490	800	8
1	491	800	8
1	563	900	9
1	564	900	9
1	565	900	9
1	653	1100	9
1	654	1100	9
1	655	1100	9
1	656	1100	10
1	693	1200	10
1	694	1200	10
1	695	1200	10
2	8	100	0
2	9	100	0
2	10	100	0
2	11	100	0
2	12	100	0
2	13	100	0
2	14	100	0
2	43	200	0
2	44	200	0
2	45	200	0
2	46	200	0
2	47	200	0
2	110	300	0
2	144	400	2
2	145	400	0
2	146	400	0
2	147	400	1
2	148	400	0
2	149	400	1
2	150	400	1
2	151	400	0
2	152	400	0
2	153	400	1
2	154	400	1
2	155	400	1
2	239	500	0
2	240	500	0
2	241	500	0
2	242	500	0
2	243	500	0
2	244	500	0
2	245	500	0
2	304	600	1
2	305	600	1
2	306	600	1
2	312	600	0
2	314	600	0
2	315	600	0
2	422	700	3
2	425	700	0
2	426	700	0
2	428	700	0
2	432	700	0
2	433	700	0
2	482	800	3
2	483	800	3
2	484	800	4
2	485	800	0
2	486	800	0
2	487	800	2
2	488	800	0
2	489	800	1
2	490	800	0
2	491	800	0
2	563	900	0
2	564	900	0
2	565	900	0
2	653	1100	0
2	654	1100	0
2	655	1100	4
2	656	1100	2
2	693	1200	0
2	694	1200	0
2	695	1200	0
3	48	200	1
3	49	200	2
3	108	300	3
3	109	300	4
3	111	300	5
3	112	300	6
3	113	300	7
3	114	300	8
3	115	300	9
3	116	300	10
3	117	300	11
3	232	500	12
3	233	500	13
3	234	500	14
3	235	500	15
3	236	500	16
3	237	500	17
3	238	500	18
3	307	600	19
3	308	600	20
3	309	600	21
3	310	600	22
3	311	600	23
3	313	600	24
3	421	700	25
3	423	700	26
3	424	700	27
3	427	700	28
3	429	700	29
3	430	700	30
3	431	700	31
3	434	700	32
3	481	800	33
3	560	900	34
3	561	900	35
3	562	900	36
3	618	1000	37
3	619	1000	38
3	620	1000	39
3	692	1200	40
3	717	1300	41
4	722	1300	1
4	722	1300	5
4	722	1300	2

