version 2
run Test1-0-20181204-17:20:51-16808
attr configname Test1
attr datetime 20181204-17:20:51
attr experiment Test1
attr inifile omnetpp.ini
attr iterationvars "$X=40, $Y=6"
attr iterationvarsf X=40,Y=6-
attr measurement "$X=40, $Y=6"
attr network Floor
attr processid 16808
attr repetition 0
attr replication #0
attr resultdir results
attr runnumber 0
attr seedset 0
itervar X 40
itervar Y 6
param Floor.sizeX 40
param Floor.sizeY 6
param Floor.selectionCriterionStarterNode 3
param Floor.slotTime 100ms
param Floor.radius 14
param Floor.PosX uniform(0,40)
param Floor.PosY uniform(0,6)
param Floor.P 0.1
param Floor.numberOfNodes 4
param Floor.slotTime 100ms

vector 0 Floor SlotTimeStat:vector ETV
attr "" ""
attr source SlotCountToTransmit
attr title "Slot count before receiving message, vector"
vector 1 Floor hopCountStat:vector ETV
attr "" ""
attr source Infection
attr title "Hop count, vector"
vector 2 Floor collisionOfInfectedStat:vector ETV
attr "" ""
attr source CollisionsOfInfectedNode
attr title "Number of Collisions of infected node, vector"
0	2	100	1
1	2	100	1
2	2	100	0
0	20	1700	17
1	20	1700	2
2	20	1700	0
0	35	3000	30
1	35	3000	3
2	35	3000	0

