file 1156 1543940614                                            
version 2
run Test-0-20181204-17:23:08-13232
attr configname Test
attr datetime 20181204-17:23:08
attr experiment Test
attr inifile omnetpp.ini
attr iterationvars "$X=200, $Y=200, $0=20, $1=0.1, $N=20"
attr iterationvarsf X=200,Y=200,20,0.1,N=20-
attr measurement "$X=200, $Y=200, $0=20, $1=0.1, $N=20"
attr network Floor
attr processid 13232
attr repetition 0
attr replication #0
attr resultdir results
attr runnumber 0
attr seedset 0
itervar N 20
itervar X 200
itervar Y 200
param Floor.sizeX 200
param Floor.sizeY 200
param Floor.radius 20
param Floor.PosX uniform(0,200)
param Floor.PosY uniform(0,200)
param Floor.P 0.1
param Floor.numberOfNodes 20
param Floor.slotTime 100ms

vector 0 Floor SlotTimeStat:vector ETV
attr "" ""
attr source SlotCountToTransmit
attr title "Slot count before receiving message, vector"
vector 1 Floor hopCountStat:vector ETV
attr "" ""
attr source Infection
attr title "Hop count, vector"
vector 2 Floor collisionOfInfectedStat:vector ETV
attr "" ""
attr source CollisionsOfInfectedNode
attr title "Number of Collisions of infected node, vector"
0	1121 11 2 2 100 100 1 1 1 1 1
1	1132 11 2 2 100 100 1 1 1 1 1
2	1143 11 2 2 100 100 1 0 0 0 0

